 Gaussian 16, Revision A.03,
 Gaussian 16:  ES64L-G16RevA.03 25-Dec-2016

 ----------------------------------------------------------------------
 #p freq b3lyp/gen geom=connectivity gfprint integral=grid=ultrafine ps
 eudo=read scf=conver=9 scf=Maxcycle=40 EmpiricalDispersion=gd3bj
 ----------------------------------------------------------------------

 ---------------------------------------------------------------
 Frequency of ZnDMA complex using same criteria as TM - properly
 ---------------------------------------------------------------
 Symbolic Z-matrix:
 Charge = -1 Multiplicity = 1

                         Standard orientation:
 ---------------------------------------------------------------------
 Center     Atomic      Atomic             Coordinates (Angstroms)
 Number     Number       Type             X           Y           Z
 ---------------------------------------------------------------------
      1          6           0        2.916051   -1.127271   -0.863979
      2          6           0        2.774514   -0.682153    0.604342
      3          6           0        2.245848   -1.723596    1.623921
      4          6           0        1.392340   -0.576837    2.204234
      5          6           0        1.829370    1.621612    1.018914
      6          6           0        0.597690    2.407949    1.475419
      7          6           0       -0.652232    2.290655    0.585416
      8          6           0       -0.276319    2.634094   -0.888056
      9          6           0       -2.661236    0.925648    0.235590
     10          6           0       -3.455328   -0.222829    0.863811
     11          6           0       -2.806244   -1.610132    0.736724
     12          6           0       -2.278149   -1.793990   -0.707523
     13          8           0        1.875203   -0.950741   -1.599771
     14          8           0        3.988957   -1.645185   -1.174863
     15          8           0       -0.064401    1.622089   -1.661915
     16          8           0       -0.162972    3.826380   -1.168313
     17          8           0       -0.977839   -1.818080   -0.782890
     18          8           0       -3.086303   -1.866463   -1.625740
     19          8           0       -1.751224   -1.764061    1.685245
     20          7           0        1.597244    0.178692    0.936981
     21          7           0       -1.253951    0.954777    0.679609
     22          1           0        3.713021   -0.226086    0.945250
     23          1           0        1.640772   -2.494194    1.137569
     24          1           0        2.978796   -2.191381    2.282991
     25          1           0        0.348252   -0.777334    2.458662
     26          1           0        1.888316   -0.078002    3.050963
     27          1           0        2.663217    1.826202    1.714296
     28          1           0        2.141704    1.958732    0.024623
     29          1           0        0.874019    3.467069    1.500403
     30          1           0       -1.365984    3.060982    0.914904
     31          1           0       -2.674303    0.840303   -0.855616
     32          1           0       -3.157749    1.878041    0.486214
     33          1           0       -3.620827   -0.025210    1.932003
     34          1           0       -4.435776   -0.254448    0.376340
     35          1           0       -3.573256   -2.374004    0.923727
     36         30           0        0.190329   -0.179048   -0.805010
     37          1           0        0.338291    2.119280    2.505471
     38          1           0       -1.206346    0.596118    1.630569
     39          1           0       -0.994269   -1.979329    1.098914
 ---------------------------------------------------------------------

 SCF Done:  E(RB3LYP) =  -1169.44359503     A.U. after   15 cycles

 The electronic state is 1-A.
 Alpha  occ. eigenvalues --  -19.03202 -19.00606 -18.99506 -18.98728 -18.98652
 Alpha  occ. eigenvalues --  -18.97334 -18.96501 -14.25941 -14.24190 -10.16974
 Alpha  occ. eigenvalues --  -10.16068 -10.15417 -10.12940 -10.12542 -10.12502
 Alpha  occ. eigenvalues --  -10.11465 -10.11437 -10.11334 -10.10309 -10.09981
 Alpha  occ. eigenvalues --  -10.08969  -0.93818  -0.91791  -0.91092  -0.90336
 Alpha  occ. eigenvalues --   -0.86694  -0.84297  -0.83545  -0.82572  -0.82243
 Alpha  occ. eigenvalues --   -0.71679  -0.68110  -0.64336  -0.60400  -0.58571
 Alpha  occ. eigenvalues --   -0.56059  -0.52143  -0.50788  -0.48490  -0.48085
 Alpha  occ. eigenvalues --   -0.47439  -0.47256  -0.46673  -0.46629  -0.44126
 Alpha  occ. eigenvalues --   -0.42824  -0.42387  -0.40321  -0.39896  -0.39182
 Alpha  occ. eigenvalues --   -0.37955  -0.37419  -0.35929  -0.35460  -0.34759
 Alpha  occ. eigenvalues --   -0.34040  -0.32728  -0.32169  -0.31004  -0.30763
 Alpha  occ. eigenvalues --   -0.30125  -0.28933  -0.28731  -0.28638  -0.28142
 Alpha  occ. eigenvalues --   -0.28043  -0.27404  -0.26973  -0.26288  -0.25857
 Alpha  occ. eigenvalues --   -0.25622  -0.25038  -0.23816  -0.22876  -0.20035
 Alpha  occ. eigenvalues --   -0.17577  -0.16104  -0.15542  -0.15208  -0.14997
 Alpha  occ. eigenvalues --   -0.14363  -0.14000  -0.13382  -0.12269  -0.11517
 Alpha  occ. eigenvalues --   -0.10814
 Alpha virt. eigenvalues --    0.13606   0.14831   0.15267   0.15290   0.15892
 Alpha virt. eigenvalues --    0.16604   0.17039   0.19096   0.20336   0.21509
 Alpha virt. eigenvalues --    0.21718   0.22695   0.22735   0.22990   0.23941

 Mulliken charges:
               1
     1  C    0.581274
     2  C   -0.026706
     3  C   -0.325943
     4  C   -0.142481
     5  C   -0.144733
     6  C   -0.298353
     7  C   -0.045631
     8  C    0.571529
     9  C   -0.135276
    10  C   -0.291797
    11  C    0.086481
    12  C    0.542085
    13  O   -0.599250
    14  O   -0.518877
    15  O   -0.607831
    16  O   -0.516346
    17  O   -0.640709
    18  O   -0.487501
    19  O   -0.689968
    20  N   -0.482403
    21  N   -0.621641
    22  H    0.124340
    23  H    0.179829
    24  H    0.140489
    25  H    0.171159
    26  H    0.118764
    27  H    0.111785
    28  H    0.202658
    29  H    0.161324
    30  H    0.120059
    31  H    0.199738
    32  H    0.116928
    33  H    0.122818
    34  H    0.146344
    35  H    0.117865
    36  Zn   0.892742
    37  H    0.120310
    38  H    0.325305
    39  H    0.421620
 Sum of Mulliken charges =  -1.00000

 Dipole moment (field-independent basis, Debye):
    X=             -1.9361    Y=              1.8383    Z=             11.5115  Tot=             11.8170
 Quadrupole moment (field-independent basis, Debye-Ang):
   XX=           -169.9393   YY=           -172.9313   ZZ=           -156.3488
   XY=              3.1454   XZ=              8.4996   YZ=              2.2122

  Exact polarizability: 184.271  -4.302 163.848   3.221   2.983 149.402
 Approx polarizability: 258.027  -8.739 236.702   8.777   4.813 231.493

                      1                      2                      3
                      A                      A                      A
 Frequencies --     37.2641                50.6577                59.9633
 Red. masses --      7.2110                13.1584                11.2692
 Frc consts  --      0.0059                 0.0199                 0.0239
 IR Inten    --      2.4871                 1.8079                 1.3909

                      4                      5                      6
                      A                      A                      A
 Frequencies --     73.1955                79.1897               106.8900
 Red. masses --      5.4592                 7.2856                 6.7105
 Frc consts  --      0.0172                 0.0269                 0.0452
 IR Inten    --      4.9969                 1.2169                 7.3177

                      7                      8                      9
                      A                      A                      A
 Frequencies --    119.4743               122.8696               141.0211
 Red. masses --      8.1269                10.4968                 7.3947
 Frc consts  --      0.0683                 0.0934                 0.0866
 IR Inten    --     11.0447                 4.6543                 1.0057

                     10                     11                     12
                      A                      A                      A
 Frequencies --    156.9079               167.6049               180.0841
 Red. masses --      7.8622                 5.8436                 4.9058
 Frc consts  --      0.1140                 0.0967                 0.0937
 IR Inten    --      3.9800                12.4049                 5.7355

                     13                     14                     15
                      A                      A                      A
 Frequencies --    188.7245               206.7392               236.1102
 Red. masses --      4.2834                 3.2698                 4.4957
 Frc consts  --      0.0899                 0.0823                 0.1477
 IR Inten    --      0.7051                 4.4730                15.5466

                     16                     17                     18
                      A                      A                      A
 Frequencies --    246.8213               264.0384               276.5066
 Red. masses --      4.8873                 2.7090                 4.3503
 Frc consts  --      0.1754                 0.1113                 0.1960
 IR Inten    --     11.5056                 2.4957                10.7086

                     19                     20                     21
                      A                      A                      A
 Frequencies --    296.5688               310.2905               339.7430
 Red. masses --      6.1444                 3.5857                 5.8940
 Frc consts  --      0.3184                 0.2034                 0.4008
 IR Inten    --     24.4549                13.7857                 0.8689

                     22                     23                     24
                      A                      A                      A
 Frequencies --    350.3612               358.0560               364.2144
 Red. masses --      3.6150                 6.5137                 5.4072
 Frc consts  --      0.2615                 0.4920                 0.4226
 IR Inten    --     22.8772                41.9959                11.4046

                     25                     26                     27
                      A                      A                      A
 Frequencies --    383.3485               420.0878               453.1982
 Red. masses --      4.4144                 4.4103                 3.1486
 Frc consts  --      0.3822                 0.4586                 0.3810
 IR Inten    --     14.8376                 4.6137                14.4688

                     28                     29                     30
                      A                      A                      A
 Frequencies --    493.0186               505.2531               536.2042
 Red. masses --      3.8761                 4.5827                 4.7434
 Frc consts  --      0.5551                 0.6893                 0.8035
 IR Inten    --      3.3854                 6.2636                 7.2240

                     31                     32                     33
                      A                      A                      A
 Frequencies --    550.4792               594.2441               607.9757
 Red. masses --      3.7337                 2.3556                 1.5677
 Frc consts  --      0.6666                 0.4901                 0.3414
 IR Inten    --      4.1912                 4.4194                71.8374

                     34                     35                     36
                      A                      A                      A
 Frequencies --    635.5676               679.2458               701.2243
 Red. masses --      3.3009                 3.8017                 4.2453
 Frc consts  --      0.7856                 1.0334                 1.2299
 IR Inten    --      6.0170                72.6616                 6.9123

                     37                     38                     39
                      A                      A                      A
 Frequencies --    718.5392               755.1731               796.5372
 Red. masses --      3.3209                 3.3114                 3.6225
 Frc consts  --      1.0102                 1.1126                 1.3542
 IR Inten    --     16.6082                23.3123                31.4958

                     40                     41                     42
                      A                      A                      A
 Frequencies --    800.7728               812.0839               831.9087
 Red. masses --      4.6442                 2.3514                 2.4791
 Frc consts  --      1.7546                 0.9137                 1.0109
 IR Inten    --     33.0120                 4.1565                18.0770

                     43                     44                     45
                      A                      A                      A
 Frequencies --    857.3315               870.4166               872.5604
 Red. masses --      2.0459                 2.5700                 3.0014
 Frc consts  --      0.8860                 1.1472                 1.3464
 IR Inten    --     20.2105                35.3295                11.9330

                     46                     47                     48
                      A                      A                      A
 Frequencies --    902.6921               933.7877               942.3114
 Red. masses --      3.2379                 2.3244                 2.2735
 Frc consts  --      1.5545                 1.1942                 1.1894
 IR Inten    --     13.8886                 4.8762                14.9697

                     49                     50                     51
                      A                      A                      A
 Frequencies --    949.2568               966.8200               971.3223
 Red. masses --      2.4033                 2.8533                 2.5263
 Frc consts  --      1.2759                 1.5714                 1.4043
 IR Inten    --     23.6417                11.4536                 1.5240

                     52                     53                     54
                      A                      A                      A
 Frequencies --   1018.3455              1026.1647              1036.5086
 Red. masses --      2.2556                 2.4867                 2.9344
 Frc consts  --      1.3781                 1.5428                 1.8574
 IR Inten    --      2.0107                25.0080                 7.1557

                     55                     56                     57
                      A                      A                      A
 Frequencies --   1071.0130              1073.9726              1089.6137
 Red. masses --      2.0718                 2.0230                 1.8965
 Frc consts  --      1.4002                 1.3747                 1.3266
 IR Inten    --     54.5273                 7.9886                21.4035

                     58                     59                     60
                      A                      A                      A
 Frequencies --   1119.7953              1125.7877              1148.9351
 Red. masses --      2.7845                 2.7682                 2.7294
 Frc consts  --      2.0572                 2.0671                 2.1228
 IR Inten    --      0.7923                39.5912                20.7702

                     61                     62                     63
                      A                      A                      A
 Frequencies --   1157.6791              1177.2188              1205.1478
 Red. masses --      1.9680                 1.7912                 3.2804
 Frc consts  --      1.5540                 1.4625                 2.8071
 IR Inten    --     35.4499                 6.1095                27.1200

                     64                     65                     66
                      A                      A                      A
 Frequencies --   1226.8769              1230.5784              1261.1794
 Red. masses --      1.2789                 1.3190                 1.4536
 Frc consts  --      1.1342                 1.1768                 1.3622
 IR Inten    --      8.2200                24.1378                 8.9070

                     67                     68                     69
                      A                      A                      A
 Frequencies --   1272.8436              1277.3999              1285.4955
 Red. masses --      1.3407                 1.2174                 1.3681
 Frc consts  --      1.2798                 1.1705                 1.3321
 IR Inten    --      7.0904                 1.5303                20.9612

                     70                     71                     72
                      A                      A                      A
 Frequencies --   1292.5277              1308.1711              1323.4668
 Red. masses --      1.2374                 1.2613                 2.1007
 Frc consts  --      1.2179                 1.2717                 2.1680
 IR Inten    --     14.0220                12.4612                71.5802

                     73                     74                     75
                      A                      A                      A
 Frequencies --   1330.4129              1337.1322              1345.9227
 Red. masses --      1.5555                 2.3206                 2.1837
 Frc consts  --      1.6221                 2.4446                 2.3307
 IR Inten    --      3.8785               128.8007                19.7133

                     76                     77                     78
                      A                      A                      A
 Frequencies --   1355.2707              1369.2133              1379.6885
 Red. masses --      1.7848                 1.4727                 1.7640
 Frc consts  --      1.9315                 1.6267                 1.9783
 IR Inten    --    111.7595                81.8597                32.4756

                     79                     80                     81
                      A                      A                      A
 Frequencies --   1389.4873              1404.3351              1408.0934
 Red. masses --      3.0766                 1.4170                 1.5725
 Frc consts  --      3.4997                 1.6465                 1.8369
 IR Inten    --    136.0948                12.3990                38.7710

                     82                     83                     84
                      A                      A                      A
 Frequencies --   1415.6593              1431.6103              1458.1297
 Red. masses --      1.4479                 1.4104                 1.3536
 Frc consts  --      1.7096                 1.7031                 1.6956
 IR Inten    --     53.4943                 6.4372               154.2329

                     85                     86                     87
                      A                      A                      A
 Frequencies --   1491.1663              1498.5136              1515.3239
 Red. masses --      1.1739                 1.1009                 1.1728
 Frc consts  --      1.5379                 1.4566                 1.5867
 IR Inten    --     33.3583                 5.3127                23.0866

                     88                     89                     90
                      A                      A                      A
 Frequencies --   1520.0869              1530.6864              1554.4779
 Red. masses --      1.0993                 1.0861                 1.1088
 Frc consts  --      1.4966                 1.4993                 1.5786
 IR Inten    --      1.9862                 5.9853                 3.2413

                     91                     92                     93
                      A                      A                      A
 Frequencies --   1561.9735              1770.8485              1778.0896
 Red. masses --      1.0726                11.9119                11.4359
 Frc consts  --      1.5419                22.0086                21.3024
 IR Inten    --      3.1413               716.7788               558.5459

                     94                     95                     96
                      A                      A                      A
 Frequencies --   1790.3168              2963.5198              2981.8473
 Red. masses --     11.1120                 1.0729                 1.0743
 Frc consts  --     20.9846                 5.5518                 5.6276
 IR Inten    --     99.8798                69.3341                54.5588

                     97                     98                     99
                      A                      A                      A
 Frequencies --   3001.9763              3009.8987              3019.6669
 Red. masses --      1.0807                 1.0695                 1.0734
 Frc consts  --      5.7384                 5.7088                 5.7667
 IR Inten    --     57.6105                32.9395                76.0683

                    100                    101                    102
                      A                      A                      A
 Frequencies --   3028.1123              3041.3312              3050.5809
 Red. masses --      1.0778                 1.0740                 1.0851
 Frc consts  --      5.8227                 5.8528                 5.9498
 IR Inten    --     47.7597                81.8871                45.2130

                    103                    104                    105
                      A                      A                      A
 Frequencies --   3093.7773              3095.4692              3097.3596
 Red. masses --      1.0612                 1.0911                 1.0889
 Frc consts  --      5.9846                 6.1598                 6.1551
 IR Inten    --     19.8956                10.5768                 9.1534

                    106                    107                    108
                      A                      A                      A
 Frequencies --   3106.6574              3107.4907              3123.7442
 Red. masses --      1.0926                 1.0942                 1.0959
 Frc consts  --      6.2130                 6.2256                 6.3003
 IR Inten    --     22.0663                27.8693                 9.8559

                    109                    110                    111
                      A                      A                      A
 Frequencies --   3156.6130              3512.5999              3540.8160
 Red. masses --      1.1076                 1.0747                 1.0638
 Frc consts  --      6.5024                 7.8125                 7.8578
 IR Inten    --     35.5675                 1.0313               107.9456

 - Thermochemistry -
 -------------------
 Temperature   298.150 Kelvin.  Pressure   1.00000 Atm.
 Atom     1 has atomic number  6 and mass  12.00000

 Molecular mass:   367.02961 amu.
 Principal axes and moments of inertia in atomic units:
                           1         2         3
     Eigenvalues --  5227.894026855.552048451.72693
           X            0.99993  -0.00091   0.01158
           Y            0.00085   0.99998   0.00561
           Z           -0.01158  -0.00560   0.99992
 This molecule is an asymmetric top.
 Rotational symmetry number  1.
 Warning -- assumption of classical behavior for rotation
           may cause significant error
 Rotational temperatures (Kelvin)      0.01657     0.01263     0.01025
 Rotational constants (GHZ):           0.34521     0.26325     0.21354
 Zero-point vibrational energy     804915.0 (Joules/Mol)
                                  192.37930 (Kcal/Mol)
 Warning -- explicit consideration of  33 degrees of freedom as
           vibrations may cause significant error
 Vibrational temperatures:     53.61    72.89    86.27   105.31   113.94
          (Kelvin)            153.79   171.90   176.78   202.90   225.76
                              241.15   259.10   271.53   297.45   339.71
                              355.12   379.89   397.83   426.70   446.44
                              488.81   504.09   515.16   524.02   551.55
                              604.41   652.05   709.34   726.95   771.48
                              792.02   854.98   874.74   914.44   977.28
                             1008.91  1033.82  1086.53  1146.04  1152.13
                             1168.41  1196.93  1233.51  1252.34  1255.42
                             1298.77  1343.51  1355.78  1365.77  1391.04
                             1397.52  1465.17  1476.42  1491.30  1540.95
                             1545.21  1567.71  1611.14  1619.76  1653.06
                             1665.64  1693.76  1733.94  1765.20  1770.53
                             1814.56  1831.34  1837.89  1849.54  1859.66
                             1882.17  1904.17  1914.17  1923.84  1936.48
                             1949.93  1969.99  1985.06  1999.16  2020.52
                             2025.93  2036.82  2059.77  2097.92  2145.46
                             2156.03  2180.21  2187.07  2202.32  2236.55
                             2247.33  2547.86  2558.27  2575.87  4263.84
                             4290.21  4319.17  4330.57  4344.63  4356.78
                             4375.80  4389.11  4451.26  4453.69  4456.41
                             4469.79  4470.99  4494.37  4541.66  5053.85
                             5094.44

 Zero-point correction=                           0.306576 (Hartree/Particle)
 Thermal correction to Energy=                    0.327308
 Thermal correction to Enthalpy=                  0.328252
 Thermal correction to Gibbs Free Energy=         0.257283
 Sum of electronic and zero-point Energies=          -1169.137019
 Sum of electronic and thermal Energies=             -1169.116287
 Sum of electronic and thermal Enthalpies=           -1169.115343
 Sum of electronic and thermal Free Energies=        -1169.186312

                     E (Thermal)             CV                S
                      KCal/Mol        Cal/Mol-Kelvin    Cal/Mol-Kelvin
 Total                  205.389             78.385            149.368
 Electronic               0.000              0.000              0.000
 Translational            0.889              2.981             43.594
 Rotational               0.889              2.981             34.070
 Vibrational            203.611             72.423             71.704
 Vibration     1          0.594              1.982              5.399
 Vibration     2          0.595              1.977              4.792
 Vibration     3          0.597              1.973              4.458
 Vibration     4          0.599              1.967              4.066
 Vibration     5          0.600              1.963              3.911
 Vibration     6          0.606              1.944              3.325
 Vibration     7          0.609              1.933              3.109
 Vibration     8          0.610              1.930              3.055
 Vibration     9          0.615              1.912              2.790
 Vibration    10          0.621              1.895              2.587
 Vibration    11          0.624              1.882              2.462
 Vibration    12          0.629              1.867              2.328
 Vibration    13          0.633              1.855              2.240
 Vibration    14          0.641              1.830              2.072
 Vibration    15          0.655              1.785              1.832
 Vibration    16          0.661              1.768              1.753
 Vibration    17          0.671              1.739              1.635
 Vibration    18          0.678              1.717              1.555
 Vibration    19          0.690              1.680              1.436
 Vibration    20          0.699              1.654              1.361
 Vibration    21          0.720              1.596              1.213
 Vibration    22          0.727              1.575              1.165
 Vibration    23          0.733              1.559              1.131
 Vibration    24          0.738              1.546              1.104
 Vibration    25          0.753              1.506              1.026
 Vibration    26          0.783              1.427              0.892
 Vibration    27          0.812              1.354              0.786
 Vibration    28          0.849              1.266              0.676
 Vibration    29          0.861              1.238              0.645
 Vibration    30          0.891              1.170              0.574
 Vibration    31          0.906              1.139              0.543
 Vibration    32          0.952              1.044              0.460
 Vibration    33          0.967              1.015              0.436

 Optimization completed.
    -- Stationary point found.
 Normal termination of Gaussian 16 at Fri Oct  2 15:49:38 2020.
