 Gaussian 16, Revision A.03,
 Gaussian 16:  ES64L-G16RevA.03 25-Dec-2016

 ----------------------------------------------------------------------
 #p freq b3lyp/gen geom=connectivity gfprint integral=grid=ultrafine ps
 eudo=read scf=conver=9 scf=Maxcycle=40 EmpiricalDispersion=gd3bj
 ----------------------------------------------------------------------

 ------------------------------------------------------------------
 Optimisation of ZnOxa complex using same criteria as TM - properly
 ------------------------------------------------------------------
 Symbolic Z-matrix:
 Charge =  0 Multiplicity = 1

                         Standard orientation:
 ---------------------------------------------------------------------
 Center     Atomic      Atomic             Coordinates (Angstroms)
 Number     Number       Type             X           Y           Z
 ---------------------------------------------------------------------
      1          6           0       -0.060405    1.865007    0.166940
      2          8           0        0.012347    3.068908    0.252314
      3          8           0        0.878183    1.000059    0.564744
      4          8           0       -2.447119    1.463087   -0.079201
      5          8           0       -1.038502    0.071629   -1.141926
      6          6           0       -1.309821    1.122190   -0.407264
      7         30           0        0.416520   -0.789354   -0.146714
      8          8           0        2.260528   -1.495679   -0.558820
      9          1           0        2.903556   -0.741446   -0.275545
     10          8           0       -0.833585   -2.033688    0.894967
     11          1           0       -1.797846   -1.712145    0.683221
     12          1           0       -0.771755   -2.106970    1.860129
     13          1           0        2.622568   -2.355542   -0.300745
     14          8           0        3.440291    0.651306    0.167588
     15          1           0        3.932089    0.701648    1.001397
     16          1           0        2.555548    1.085189    0.353126
     17          8           0       -3.194657   -1.166042    0.272986
     18          1           0       -3.235683   -1.415341   -0.665775
     19          1           0       -3.102605   -0.174595    0.206331
 ---------------------------------------------------------------------

 SCF Done:  E(RB3LYP) =  -748.522609311     A.U. after   15 cycles

 The electronic state is 1-A.
 Alpha  occ. eigenvalues --  -19.21722 -19.20507 -19.17287 -19.16213 -19.13334
 Alpha  occ. eigenvalues --  -19.12723 -19.11443 -19.10226 -10.29012 -10.28385
 Alpha  occ. eigenvalues --   -1.07813  -1.06664  -1.06055  -1.03655  -1.02951
 Alpha  occ. eigenvalues --   -1.01932  -0.97204  -0.95486  -0.64671  -0.64499
 Alpha  occ. eigenvalues --   -0.64258  -0.63817  -0.63413  -0.61511  -0.60371
 Alpha  occ. eigenvalues --   -0.58132  -0.55416  -0.53414  -0.50833  -0.49066
 Alpha  occ. eigenvalues --   -0.47196  -0.46923  -0.43559  -0.43316  -0.41996
 Alpha  occ. eigenvalues --   -0.40760  -0.40151  -0.39292  -0.38689  -0.37517
 Alpha  occ. eigenvalues --   -0.34084  -0.33381  -0.32067  -0.30239  -0.28065
 Alpha  occ. eigenvalues --   -0.27696  -0.25411  -0.22418
 Alpha virt. eigenvalues --   -0.04649  -0.00901   0.00395   0.01216   0.03392
 Alpha virt. eigenvalues --    0.07531   0.08748   0.08874   0.10999   0.14766
 Alpha virt. eigenvalues --    0.16632   0.19568   0.21044   0.21577   0.23021

 Mulliken charges:
               1
     1  C    0.528915
     2  O   -0.413603
     3  O   -0.716720
     4  O   -0.470666
     5  O   -0.649958
     6  C    0.453248
     7  Zn   1.020449
     8  O   -0.874445
     9  H    0.493562
    10  O   -0.874675
    11  H    0.494528
    12  H    0.444575
    13  H    0.453929
    14  O   -0.835712
    15  H    0.419761
    16  H    0.470404
    17  O   -0.828616
    18  H    0.424812
    19  H    0.460212
 Sum of Mulliken charges =  -0.00000

 Dipole moment (field-independent basis, Debye):
    X=              5.1088    Y=             -9.0204    Z=              2.4977  Tot=             10.6633
 Quadrupole moment (field-independent basis, Debye-Ang):
   XX=            -63.2978   YY=            -76.5121   ZZ=            -64.0594
   XY=             -1.8786   XZ=              7.5557   YZ=             -2.8392

  Exact polarizability:  80.639  -4.717  78.318   2.818   2.885  46.805
 Approx polarizability: 103.143 -12.840 114.211   0.303   7.127  68.653

                      1                      2                      3
                      A                      A                      A
 Frequencies --     40.2393                63.4434                64.5896
 Red. masses --      6.1269                 5.6014                 8.3883
 Frc consts  --      0.0058                 0.0133                 0.0206
 IR Inten    --      3.9958                 5.7899                 0.7154

                      4                      5                      6
                      A                      A                      A
 Frequencies --     78.3150               104.1247               109.1982
 Red. masses --      4.7801                 6.8233                 5.8127
 Frc consts  --      0.0173                 0.0436                 0.0408
 IR Inten    --      1.2699                 5.2215                 8.0772

                      7                      8                      9
                      A                      A                      A
 Frequencies --    127.7126               159.0504               200.5442
 Red. masses --      4.9288                 8.2793                 4.5873
 Frc consts  --      0.0474                 0.1234                 0.1087
 IR Inten    --      3.8190                27.0050                 7.7004

                     10                     11                     12
                      A                      A                      A
 Frequencies --    224.8692               267.2114               287.5572
 Red. masses --      4.7904                 1.6168                 3.3877
 Frc consts  --      0.1427                 0.0680                 0.1650
 IR Inten    --     41.9992               119.9404                19.6028

                     13                     14                     15
                      A                      A                      A
 Frequencies --    305.4594               319.0314               335.1680
 Red. masses --      6.8238                 2.4591                 2.5522
 Frc consts  --      0.3751                 0.1475                 0.1689
 IR Inten    --     45.9815                44.5491                27.0513

                     16                     17                     18
                      A                      A                      A
 Frequencies --    344.1610               359.8244               369.4902
 Red. masses --      1.7865                 2.6747                 3.5857
 Frc consts  --      0.1247                 0.2040                 0.2884
 IR Inten    --     24.9955               122.4305                21.3422

                     19                     20                     21
                      A                      A                      A
 Frequencies --    392.6314               401.2492               416.3721
 Red. masses --      7.7155                 1.5779                 6.5695
 Frc consts  --      0.7008                 0.1497                 0.6710
 IR Inten    --     34.6011                81.5862                40.3137

                     22                     23                     24
                      A                      A                      A
 Frequencies --    445.8434               506.0548               547.6652
 Red. masses --      5.4116                 1.1296                 1.1618
 Frc consts  --      0.6338                 0.1704                 0.2053
 IR Inten    --     73.9418                57.0430                91.5238

                     25                     26                     27
                      A                      A                      A
 Frequencies --    557.0066               701.7979               760.4096
 Red. masses --      9.6925                11.7756                 2.4351
 Frc consts  --      1.7718                 3.4171                 0.8296
 IR Inten    --     12.0125                18.9326                35.0572

                     28                     29                     30
                      A                      A                      A
 Frequencies --    777.5001               790.0597               838.3469
 Red. masses --      1.7052                 1.0847                 4.7546
 Frc consts  --      0.6073                 0.3989                 1.9688
 IR Inten    --    295.9778                39.8611                24.7863

                     31                     32                     33
                      A                      A                      A
 Frequencies --    867.1831               919.4504               933.2515
 Red. masses --      6.2790                 1.1723                 1.2366
 Frc consts  --      2.7820                 0.5839                 0.6346
 IR Inten    --     76.2735               121.5214               141.3151

                     34                     35                     36
                      A                      A                      A
 Frequencies --   1090.8849              1197.6880              1231.4203
 Red. masses --      1.1701                 3.4874                 1.2318
 Frc consts  --      0.8204                 2.9474                 1.1005
 IR Inten    --    228.9543               215.7453               187.8432

                     37                     38                     39
                      A                      A                      A
 Frequencies --   1360.0377              1721.2912              1725.4110
 Red. masses --     12.0136                 1.3737                 2.7849
 Frc consts  --     13.0926                 2.3979                 4.8847
 IR Inten    --    316.7718                27.0940               229.9294

                     40                     41                     42
                      A                      A                      A
 Frequencies --   1737.2774              1752.9345              1770.4835
 Red. masses --      1.1539                 1.0771                 1.0788
 Frc consts  --      2.0520                 1.9500                 1.9924
 IR Inten    --    240.6368               133.6361                39.9635

                     43                     44                     45
                      A                      A                      A
 Frequencies --   1835.8110              2604.9408              2718.0907
 Red. masses --     10.8311                 1.0770                 1.0754
 Frc consts  --     21.5069                 4.3059                 4.6810
 IR Inten    --    358.9879              1564.6775              1180.5111

                     46                     47                     48
                      A                      A                      A
 Frequencies --   3211.6743              3301.7627              3760.5589
 Red. masses --      1.0644                 1.0647                 1.0644
 Frc consts  --      6.4688                 6.8387                 8.8685
 IR Inten    --   1268.0223               607.8988                53.6567

                     49                     50                     51
                      A                      A                      A
 Frequencies --   3785.9746              3790.4453              3813.1456
 Red. masses --      1.0653                 1.0661                 1.0663
 Frc consts  --      8.9963                 9.0242                 9.1347
 IR Inten    --     67.4058                67.4142                94.7027

 - Thermochemistry -
 -------------------
 Temperature   298.150 Kelvin.  Pressure   1.00000 Atm.
 Atom     1 has atomic number  6 and mass  12.00000

 Molecular mass:   223.95106 amu.
 Principal axes and moments of inertia in atomic units:
                           1         2         3
     Eigenvalues --  1788.985582572.614433962.37195
           X            0.99928   0.03769   0.00376
           Y           -0.03766   0.99927  -0.00679
           Z           -0.00402   0.00665   0.99997
 This molecule is an asymmetric top.
 Rotational symmetry number  1.
 Warning -- assumption of classical behavior for rotation
           may cause significant error
 Rotational temperatures (Kelvin)      0.04842     0.03367     0.02186
 Rotational constants (GHZ):           1.00881     0.70152     0.45547
 Zero-point vibrational energy     335101.8 (Joules/Mol)
                                   80.09125 (Kcal/Mol)
 Warning -- explicit consideration of  25 degrees of freedom as
           vibrations may cause significant error
 Vibrational temperatures:     57.90    91.28    92.93   112.68   149.81
          (Kelvin)            157.11   183.75   228.84   288.54   323.54
                              384.46   413.73   439.49   459.02   482.23
                              495.17   517.71   531.61   564.91   577.31
                              599.07   641.47   728.10   787.97   801.41
                             1009.73  1094.06  1118.65  1136.72  1206.19
                             1247.68  1322.88  1342.74  1569.54  1723.21
                             1771.74  1956.79  2476.55  2482.48  2499.55
                             2522.08  2547.33  2641.32  3747.93  3910.73
                             4620.88  4750.50  5410.61  5447.17  5453.61
                             5486.27

 Zero-point correction=                           0.127634 (Hartree/Particle)
 Thermal correction to Energy=                    0.143147
 Thermal correction to Enthalpy=                  0.144092
 Thermal correction to Gibbs Free Energy=         0.084666
 Sum of electronic and zero-point Energies=           -748.394976
 Sum of electronic and thermal Energies=              -748.379462
 Sum of electronic and thermal Enthalpies=            -748.378518
 Sum of electronic and thermal Free Energies=         -748.437943

                     E (Thermal)             CV                S
                      KCal/Mol        Cal/Mol-Kelvin    Cal/Mol-Kelvin
 Total                   89.826             53.422            125.071
 Electronic               0.000              0.000              0.000
 Translational            0.889              2.981             42.121
 Rotational               0.889              2.981             31.278
 Vibrational             88.049             47.461             51.671
 Vibration     1          0.594              1.981              5.247
 Vibration     2          0.597              1.972              4.347
 Vibration     3          0.597              1.971              4.312
 Vibration     4          0.600              1.964              3.933
 Vibration     5          0.605              1.946              3.376
 Vibration     6          0.606              1.942              3.283
 Vibration     7          0.611              1.925              2.980
 Vibration     8          0.621              1.892              2.561
 Vibration     9          0.638              1.839              2.128
 Vibration    10          0.650              1.803              1.920
 Vibration    11          0.672              1.733              1.614
 Vibration    12          0.685              1.697              1.488
 Vibration    13          0.696              1.663              1.387
 Vibration    14          0.705              1.637              1.315
 Vibration    15          0.716              1.605              1.235
 Vibration    16          0.723              1.587              1.193
 Vibration    17          0.734              1.555              1.123
 Vibration    18          0.742              1.535              1.082
 Vibration    19          0.760              1.486              0.990
 Vibration    20          0.767              1.467              0.958
 Vibration    21          0.780              1.435              0.904
 Vibration    22          0.805              1.370              0.808
 Vibration    23          0.861              1.237              0.643
 Vibration    24          0.903              1.145              0.549
 Vibration    25          0.913              1.124              0.530

 Optimization completed.
    -- Stationary point found.
 Normal termination of Gaussian 16 at Mon Oct  5 10:00:39 2020.
